                              Psi4 0.3.179 Driver

  ==> Input File <==

--------------------------------------------------------------------------
molecule {
  1 2
  O
  H 1 0.96
  H 1 0.96 2 104.5
}

set basis sto-3g
set reference uhf
set scf_type pk
set df_scf_guess false
energy('scf')

from h2o_alt import water_mp2_script

scfwfn = psi4.wavefunction()
mints  = psi4.MintsHelper()

water_mp2_script(scfwfn, mints)

set mp2_type conv
energy('mp2')
--------------------------------------------------------------------------

    Molecular point group: c2v
  Charge       = 1
  Multiplicity = 2
  Basis Set: STO-3G
  @UHF Final Energy:   -74.65670262366334
    Total Energy =                        -74.6567026236633211
    Molecular point group: c2v

    Geometry (in Angstrom), charge = 1, multiplicity = 2:

       Center              X                  Y                   Z               Mass
    ------------   -----------------  -----------------  -----------------  -----------------
           O          0.000000000000     0.000000000000    -0.065775570538    15.994914619560
           H          0.000000000000    -0.759061990794     0.521953018295     1.007825032070
           H          0.000000000000     0.759061990794     0.521953018295     1.007825032070

  Charge       = 1
  Multiplicity = 2
  Basis Set: STO-3G

    Orbital Energies (a.u.)
    -----------------------

    Alpha Occupied:

       1A1   -21.032775     2A1    -1.926378     1B2    -1.198781
       1B1    -1.114179     3A1    -1.067276

    Alpha Virtual:

       4A1     0.083696     2B2     0.197181

    Beta Occupied:

       1A1   -21.001873     2A1    -1.756076     1B2    -1.156455
       3A1    -1.007736

    Beta Virtual:

       1B1    -0.225943     4A1     0.115936     2B2     0.217515

    Final Occupation by Irrep:
             A1    A2    B1    B2
    DOCC [     3,    0,    0,    1 ]
    SOCC [     0,    0,    1,    0 ]

  Energy converged.

  @UHF Final Energy:   -74.65670262366409

   => Energetics <=

    Nuclear Repulsion Energy =              9.1681932603875769
    One-Electron Energy =                -116.3882627607992362
    Two-Electron Energy =                  32.5633668767475655
    DFT Exchange-Correlation Energy =       0.0000000000000000
    Empirical Dispersion Energy =           0.0000000000000000
    PCM Polarization Energy =               0.0000000000000000
    EFP Energy =                            0.0000000000000000
    Total Energy =                        -74.6567026236640885

    Alert: EFP and PCM quantities not currently incorporated into SCF psivars.

Properties will be evaluated at   0.000000,   0.000000,   0.000000 Bohr
  ==> Properties <==

Properties computed using the SCF density matrix

  Nuclear Dipole Moment: (a.u.)
     X:     0.0000      Y:     0.0000      Z:     0.9783

  Electronic Dipole Moment: (a.u.)
     X:     0.0000      Y:     0.0000      Z:     0.0896

  Dipole Moment: (a.u.)
     X:     0.0000      Y:     0.0000      Z:     1.0679     Total:     1.0679

  Dipole Moment: (Debye)
     X:     0.0000      Y:     0.0000      Z:     2.7143     Total:     2.7143

  Saving occupied orbitals to File 180.

  UHF NO Occupations:
  HONO-2 :    1 B2 1.9988347
  HONO-1 :    3 A1 1.9985357
  HONO-0 :    1 B1 1.0000000
  LUNO+0 :    4 A1 0.0014643
  LUNO+1 :    2 B2 0.0011653

*** tstop() called on hal at Wed Nov 11 16:18:45 2015
Module time:
	user time   =       0.26 seconds =       0.00 minutes
	system time =       0.63 seconds =       0.01 minutes
	total time  =          0 seconds =       0.00 minutes
Total time:
	user time   =       0.69 seconds =       0.01 minutes
	system time =       2.27 seconds =       0.04 minutes
	total time  =          0 seconds =       0.00 minutes

*** tstart() called on hal
*** at Wed Nov 11 16:18:45 2015

 ==============================================================================
 ==============================================================================
 ==============================================================================

                       MP2
              Program Written by Ugur Bozkaya,
              Latest Revision June 25, 2014.

 ==============================================================================
 ==============================================================================
 ==============================================================================

	RMS orbital gradient is changed to :     1.00e-05
	MAX orbital gradient is changed to :     3.16e-04
	MO spaces per irreps...

	IRREP   FC   AOCC  BOCC  AVIR    BVIR  FV
	==========================================
	  A1     0     3     3     1      1     0
	  A2     0     0     0     0      0     0
	  B1     0     1     0     0      1     0
	  B2     0     1     1     1      1     0
	==========================================

	Computing MP2 energy using SCF MOs (Canonical MP2)...
	==============================================================================
	Nuclear Repulsion Energy (a.u.)    :     9.16819326038758
	SCF Energy (a.u.)                  :   -74.65670262366409
	REF Energy (a.u.)                  :   -74.65670262366409
	Alpha-Alpha Contribution (a.u.)    :    -0.00077060636508
	Alpha-Beta Contribution (a.u.)     :    -0.02613439724544
	Beta-Beta Contribution (a.u.)      :    -0.00087389306988
	Scaled_SS Correlation Energy (a.u.):    -0.00054816647832
	Scaled_OS Correlation Energy (a.u.):    -0.03136127669453
	SCS-MP2 Total Energy (a.u.)        :   -74.68861206683692
	SOS-MP2 Total Energy (a.u.)        :   -74.65670262366409
	SCSN-MP2 Total Energy (a.u.)       :   -74.65959694266961
	SCS-MP2-VDW Total Energy (a.u.)    :   -74.69097690185572
	SOS-PI-MP2 Total Energy (a.u.)     :   -74.69329077980771
	MP2 Correlation Energy (a.u.)      :    -0.02777889668040
	MP2 Total Energy (a.u.)            :   -74.68448152034449
	==============================================================================

*** tstop() called on hal at Wed Nov 11 16:18:46 2015
Module time:
	user time   =       0.08 seconds =       0.00 minutes
	system time =       0.44 seconds =       0.01 minutes
	total time  =          1 seconds =       0.02 minutes
Total time:
	user time   =       0.80 seconds =       0.01 minutes
	system time =       2.91 seconds =       0.05 minutes
	total time  =          1 seconds =       0.02 minutes

*** PSI4 exiting successfully. Buy a developer a beer!
